# vtk DataFile Version 3.0
ihlan
ASCII
DATASET POLYDATA
POINTS 6 FLOAT
5 0 0
1.54508 4.75528 0
-4.04508 2.93893 0
-4.04508 -2.93893 0
1.54508 -4.75528 0
0 0 10
POLYGONS 6 26
3 0 1 5
3 1 2 5
3 2 3 5
3 3 4 5
3 4 0 5
5 0 1 2 3 4 
CELL_DATA 6
SCALARS cell_scalars int 1
LOOKUP_TABLE default
0
1
2
3
4
5
NORMALS cell_vectors float
1 0 0
1 0 0
1 0 0
1 0 0
1 0 0
1 0 0
POINT_DATA 6
SCALARS sample_scalars 
float 1
LOOKUP_TABLE my_table
0.0
1.0
2.0
3.0
4.0
5.0
LOOKUP_TABLE my_table
9
0.0 0.1 0.0 1.0
0.0 0.2 0.0 1.0
0.0 0.3 0.0 1.0
0.0 0.4 0.0 1.0
0.0 0.5 0.0 1.0
0.0 0.6 0.0 1.0
0.0 0.7 0.0 1.0
0.0 0.8 0.0 1.0
0.0 0.9 0.0 1.0
